<?xml version="1.0"?>
<VTKFile type="UnstructuredGrid"  version="0.1"  >
<UnstructuredGrid>
<Piece  NumberOfPoints="4225" NumberOfCells="8192">
<Points>
<DataArray  type="Float64"  NumberOfComponents="3"  format="ascii">0 0 0  0.015625 0 0  0.03125 0 0  0.046875 0 0  0.0625 0 0  0.078125 0 0  0.09375 0 0  0.109375 0 0  0.125 0 0  0.140625 0 0  0.15625 0 0  0.171875 0 0  0.1875 0 0  0.203125 0 0  0.21875 0 0  0.234375 0 0  0.25 0 0  0.265625 0 0  0.28125 0 0  0.296875 0 0  0.3125 0 0  0.328125 0 0  0.34375 0 0  0.359375 0 0  0.375 0 0  0.390625 0 0  0.40625 0 0  0.421875 0 0  0.4375 0 0  0.453125 0 0  0.46875 0 0  0.484375 0 0  0.5 0 0  0.515625 0 0  0.53125 0 0  0.546875 0 0  0.5625 0 0  0.578125 0 0  0.59375 0 0  0.609375 0 0  0.625 0 0  0.640625 0 0  0.65625 0 0  0.671875 0 0  0.6875 0 0  0.703125 0 0  0.71875 0 0  0.734375 0 0  0.75 0 0  0.765625 0 0  0.78125 0 0  0.796875 0 0  0.8125 0 0  0.828125 0 0  0.84375 0 0  0.859375 0 0  0.875 0 0  0.890625 0 0  0.90625 0 0  0.921875 0 0  0.9375 0 0  0.953125 0 0  0.96875 0 0  0.984375 0 0  1 0 0  0 0.015625 0  0.015625 0.015625 0  0.03125 0.015625 0  0.046875 0.015625 0  0.0625 0.015625 0  0.078125 0.015625 0  0.09375 0.015625 0  0.109375 0.015625 0  0.125 0.015625 0  0.140625 0.015625 0  0.15625 0.015625 0  0.171875 0.015625 0  0.1875 0.015625 0  0.203125 0.015625 0  0.21875 0.015625 0  0.234375 0.015625 0  0.25 0.015625 0  0.265625 0.015625 0  0.28125 0.015625 0  0.296875 0.015625 0  0.3125 0.015625 0  0.328125 0.015625 0  0.34375 0.015625 0  0.359375 0.015625 0  0.375 0.015625 0  0.390625 0.015625 0  0.40625 0.015625 0  0.421875 0.015625 0  0.4375 0.015625 0  0.453125 0.015625 0  0.46875 0.015625 0  0.484375 0.015625 0  0.5 0.015625 0  0.515625 0.015625 0  0.53125 0.015625 0  0.546875 0.015625 0  0.5625 0.015625 0  0.578125 0.015625 0  0.59375 0.015625 0  0.609375 0.015625 0  0.625 0.015625 0  0.640625 0.015625 0  0.65625 0.015625 0  0.671875 0.015625 0  0.6875 0.015625 0  0.703125 0.015625 0  0.71875 0.015625 0  0.734375 0.015625 0  0.75 0.015625 0  0.765625 0.015625 0  0.78125 0.015625 0  0.796875 0.015625 0  0.8125 0.015625 0  0.828125 0.015625 0  0.84375 0.015625 0  0.859375 0.015625 0  0.875 0.015625 0  0.890625 0.015625 0  0.90625 0.015625 0  0.921875 0.015625 0  0.9375 0.015625 0  0.953125 0.015625 0  0.96875 0.015625 0  0.984375 0.015625 0  1 0.015625 0  0 0.03125 0  0.015625 0.03125 0  0.03125 0.03125 0  0.046875 0.03125 0  0.0625 0.03125 0  0.078125 0.03125 0  0.09375 0.03125 0  0.109375 0.03125 0  0.125 0.03125 0  0.140625 0.03125 0  0.15625 0.03125 0  0.171875 0.03125 0  0.1875 0.03125 0  0.203125 0.03125 0  0.21875 0.03125 0  0.234375 0.03125 0  0.25 0.03125 0  0.265625 0.03125 0  0.28125 0.03125 0  0.296875 0.03125 0  0.3125 0.03125 0  0.328125 0.03125 0  0.34375 0.03125 0  0.359375 0.03125 0  0.375 0.03125 0  0.390625 0.03125 0  0.40625 0.03125 0  0.421875 0.03125 0  0.4375 0.03125 0  0.453125 0.03125 0  0.46875 0.03125 0  0.484375 0.03125 0  0.5 0.03125 0  0.515625 0.03125 0  0.53125 0.03125 0  0.546875 0.03125 0  0.5625 0.03125 0  0.578125 0.03125 0  0.59375 0.03125 0  0.609375 0.03125 0  0.625 0.03125 0  0.640625 0.03125 0  0.65625 0.03125 0  0.671875 0.03125 0  0.6875 0.03125 0  0.703125 0.03125 0  0.71875 0.03125 0  0.734375 0.03125 0  0.75 0.03125 0  0.765625 0.03125 0  0.78125 0.03125 0  0.796875 0.03125 0  0.8125 0.03125 0  0.828125 0.03125 0  0.84375 0.03125 0  0.859375 0.03125 0  0.875 0.03125 0  0.890625 0.03125 0  0.90625 0.03125 0  0.921875 0.03125 0  0.9375 0.03125 0  0.953125 0.03125 0  0.96875 0.03125 0  0.984375 0.03125 0  1 0.03125 0  0 0.046875 0  0.015625 0.046875 0  0.03125 0.046875 0  0.046875 0.046875 0  0.0625 0.046875 0  0.078125 0.046875 0  0.09375 0.046875 0  0.109375 0.046875 0  0.125 0.046875 0  0.140625 0.046875 0  0.15625 0.046875 0  0.171875 0.046875 0  0.1875 0.046875 0  0.203125 0.046875 0  0.21875 0.046875 0  0.234375 0.046875 0  0.25 0.046875 0  0.265625 0.046875 0  0.28125 0.046875 0  0.296875 0.046875 0  0.3125 0.046875 0  0.328125 0.046875 0  0.34375 0.046875 0  0.359375 0.046875 0  0.375 0.046875 0  0.390625 0.046875 0  0.40625 0.046875 0  0.421875 0.046875 0  0.4375 0.046875 0  0.453125 0.046875 0  0.46875 0.046875 0  0.484375 0.046875 0  0.5 0.046875 0  0.515625 0.046875 0  0.53125 0.046875 0  0.546875 0.046875 0  0.5625 0.046875 0  0.578125 0.046875 0  0.59375 0.046875 0  0.609375 0.046875 0  0.625 0.046875 0  0.640625 0.046875 0  0.65625 0.046875 0  0.671875 0.046875 0  0.6875 0.046875 0  0.703125 0.046875 0  0.71875 0.046875 0  0.734375 0.046875 0  0.75 0.046875 0  0.765625 0.046875 0  0.78125 0.046875 0  0.796875 0.046875 0  0.8125 0.046875 0  0.828125 0.046875 0  0.84375 0.046875 0  0.859375 0.046875 0  0.875 0.046875 0  0.890625 0.046875 0  0.90625 0.046875 0  0.921875 0.046875 0  0.9375 0.046875 0  0.953125 0.046875 0  0.96875 0.046875 0  0.984375 0.046875 0  1 0.046875 0  0 0.0625 0  0.015625 0.0625 0  0.03125 0.0625 0  0.046875 0.0625 0  0.0625 0.0625 0  0.078125 0.0625 0  0.09375 0.0625 0  0.109375 0.0625 0  0.125 0.0625 0  0.140625 0.0625 0  0.15625 0.0625 0  0.171875 0.0625 0  0.1875 0.0625 0  0.203125 0.0625 0  0.21875 0.0625 0  0.234375 0.0625 0  0.25 0.0625 0  0.265625 0.0625 0  0.28125 0.0625 0  0.296875 0.0625 0  0.3125 0.0625 0  0.328125 0.0625 0  0.34375 0.0625 0  0.359375 0.0625 0  0.375 0.0625 0  0.390625 0.0625 0  0.40625 0.0625 0  0.421875 0.0625 0  0.4375 0.0625 0  0.453125 0.0625 0  0.46875 0.0625 0  0.484375 0.0625 0  0.5 0.0625 0  0.515625 0.0625 0  0.53125 0.0625 0  0.546875 0.0625 0  0.5625 0.0625 0  0.578125 0.0625 0  0.59375 0.0625 0  0.609375 0.0625 0  0.625 0.0625 0  0.640625 0.0625 0  0.65625 0.0625 0  0.671875 0.0625 0  0.6875 0.0625 0  0.703125 0.0625 0  0.71875 0.0625 0  0.734375 0.0625 0  0.75 0.0625 0  0.765625 0.0625 0  0.78125 0.0625 0  0.796875 0.0625 0  0.8125 0.0625 0  0.828125 0.0625 0  0.84375 0.0625 0  0.859375 0.0625 0  0.875 0.0625 0  0.890625 0.0625 0  0.90625 0.0625 0  0.921875 0.0625 0  0.9375 0.0625 0  0.953125 0.0625 0  0.96875 0.0625 0  0.984375 0.0625 0  1 0.0625 0  0 0.078125 0  0.015625 0.078125 0  0.03125 0.078125 0  0.046875 0.078125 0  0.0625 0.078125 0  0.078125 0.078125 0  0.09375 0.078125 0  0.109375 0.078125 0  0.125 0.078125 0  0.140625 0.078125 0  0.15625 0.078125 0  0.171875 0.078125 0  0.1875 0.078125 0  0.203125 0.078125 0  0.21875 0.078125 0  0.234375 0.078125 0  0.25 0.078125 0  0.265625 0.078125 0  0.28125 0.078125 0  0.296875 0.078125 0  0.3125 0.078125 0  0.328125 0.078125 0  0.34375 0.078125 0  0.359375 0.078125 0  0.375 0.078125 0  0.390625 0.078125 0  0.40625 0.078125 0  0.421875 0.078125 0  0.4375 0.078125 0  0.453125 0.078125 0  0.46875 0.078125 0  0.484375 0.078125 0  0.5 0.078125 0  0.515625 0.078125 0  0.53125 0.078125 0  0.546875 0.078125 0  0.5625 0.078125 0  0.578125 0.078125 0  0.59375 0.078125 0  0.609375 0.078125 0  0.625 0.078125 0  0.640625 0.078125 0  0.65625 0.078125 0  0.671875 0.078125 0  0.6875 0.078125 0  0.703125 0.078125 0  0.71875 0.078125 0  0.734375 0.078125 0  0.75 0.078125 0  0.765625 0.078125 0  0.78125 0.078125 0  0.796875 0.078125 0  0.8125 0.078125 0  0.828125 0.078125 0  0.84375 0.078125 0  0.859375 0.078125 0  0.875 0.078125 0  0.890625 0.078125 0  0.90625 0.078125 0  0.921875 0.078125 0  0.9375 0.078125 0  0.953125 0.078125 0  0.96875 0.078125 0  0.984375 0.078125 0  1 0.078125 0  0 0.09375 0  0.015625 0.09375 0  0.03125 0.09375 0  0.046875 0.09375 0  0.0625 0.09375 0  0.078125 0.09375 0  0.09375 0.09375 0  0.109375 0.09375 0  0.125 0.09375 0  0.140625 0.09375 0  0.15625 0.09375 0  0.171875 0.09375 0  0.1875 0.09375 0  0.203125 0.09375 0  0.21875 0.09375 0  0.234375 0.09375 0  0.25 0.09375 0  0.265625 0.09375 0  0.28125 0.09375 0  0.296875 0.09375 0  0.3125 0.09375 0  0.328125 0.09375 0  0.34375 0.09375 0  0.359375 0.09375 0  0.375 0.09375 0  0.390625 0.09375 0  0.40625 0.09375 0  0.421875 0.09375 0  0.4375 0.09375 0  0.453125 0.09375 0  0.46875 0.09375 0  0.484375 0.09375 0  0.5 0.09375 0  0.515625 0.09375 0  0.53125 0.09375 0  0.546875 0.09375 0  0.5625 0.09375 0  0.578125 0.09375 0  0.59375 0.09375 0  0.609375 0.09375 0  0.625 0.09375 0  0.640625 0.09375 0  0.65625 0.09375 0  0.671875 0.09375 0  0.6875 0.09375 0  0.703125 0.09375 0  0.71875 0.09375 0  0.734375 0.09375 0  0.75 0.09375 0  0.765625 0.09375 0  0.78125 0.09375 0  0.796875 0.09375 0  0.8125 0.09375 0  0.828125 0.09375 0  0.84375 0.09375 0  0.859375 0.09375 0  0.875 0.09375 0  0.890625 0.09375 0  0.90625 0.09375 0  0.921875 0.09375 0  0.9375 0.09375 0  0.953125 0.09375 0  0.96875 0.09375 0  0.984375 0.09375 0  1 0.09375 0  0 0.109375 0  0.015625 0.109375 0  0.03125 0.109375 0  0.046875 0.109375 0  0.0625 0.109375 0  0.078125 0.109375 0  0.09375 0.109375 0  0.109375 0.109375 0  0.125 0.109375 0  0.140625 0.109375 0  0.15625 0.109375 0  0.171875 0.109375 0  0.1875 0.109375 0  0.203125 0.109375 0  0.21875 0.109375 0  0.234375 0.109375 0  0.25 0.109375 0  0.265625 0.109375 0  0.28125 0.109375 0  0.296875 0.109375 0  0.3125 0.109375 0  0.328125 0.109375 0  0.34375 0.109375 0  0.359375 0.109375 0  0.375 0.109375 0  0.390625 0.109375 0  0.40625 0.109375 0  0.421875 0.109375 0  0.4375 0.109375 0  0.453125 0.109375 0  0.46875 0.109375 0  0.484375 0.109375 0  0.5 0.109375 0  0.515625 0.109375 0  0.53125 0.109375 0  0.546875 0.109375 0  0.5625 0.109375 0  0.578125 0.109375 0  0.59375 0.109375 0  0.609375 0.109375 0  0.625 0.109375 0  0.640625 0.109375 0  0.65625 0.109375 0  0.671875 0.109375 0  0.6875 0.109375 0  0.703125 0.109375 0  0.71875 0.109375 0  0.734375 0.109375 0  0.75 0.109375 0  0.765625 0.109375 0  0.78125 0.109375 0  0.796875 0.109375 0  0.8125 0.109375 0  0.828125 0.109375 0  0.84375 0.109375 0  0.859375 0.109375 0  0.875 0.109375 0  0.890625 0.109375 0  0.90625 0.109375 0  0.921875 0.109375 0  0.9375 0.109375 0  0.953125 0.109375 0  0.96875 0.109375 0  0.984375 0.109375 0  1 0.109375 0  0 0.125 0  0.015625 0.125 0  0.03125 0.125 0  0.046875 0.125 0  0.0625 0.125 0  0.078125 0.125 0  0.09375 0.125 0  0.109375 0.125 0  0.125 0.12
[...]
<PointData  Vectors="f_50988"> 
<DataArray  type="Float64"  Name="f_50988"  NumberOfComponents="3" format="ascii">1.6477522316330809e-07 -1.6442132710986942e-07 0.0000000000000000e+00  2.1166880854635121e-07 -1.4936496970309559e-07 0.0000000000000000e+00  2.8124844472794305e-07 -1.4142460159016803e-07 0.0000000000000000e+00  3.2408754521808073e-07 -1.3505105163118543e-07 0.0000000000000000e+00  3.5133202040726851e-07 -1.2901316287566208e-07 0.0000000000000000e+00  3.6925222590811951e-07 -1.2503264176248553e-07 0.0000000000000000e+00  3.7944034541704074e-07 -1.1736513287160659e-07 0.0000000000000000e+00  3.9598532480307651e-07 -1.1613165669165488e-07 0.0000000000000000e+00  4.2823365667689954e-07 -1.1716846425334028e-07 0.0000000000000000e+00  4.6452107649819933e-07 -1.1852050460897761e-07 0.0000000000000000e+00  4.9030384536800782e-07 -1.1497851528832092e-07 0.0000000000000000e+00  5.0467563691662945e-07 -1.1381036366323337e-07 0.0000000000000000e+00  5.1532115183642865e-07 -1.1150140727324353e-07 0.0000000000000000e+00  5.2244904416096516e-07 -1.1004153513699200e-07 0.0000000000000000e+00  5.2383565345324576e-07 -1.0355293651191456e-07 0.0000000000000000e+00  5.3412400839042316e-07 -1.0272825059789198e-07 0.0000000000000000e+00  5.6795598510145676e-07 -1.0458150681913798e-07 0.0000000000000000e+00  6.1526314823383351e-07 -1.0642158258417299e-07 0.0000000000000000e+00  6.5558317855246187e-07 -1.0354868910830370e-07 0.0000000000000000e+00  6.7950270110320151e-07 -1.0083993871981337e-07 0.0000000000000000e+00  6.9188633430700812e-07 -9.6042763748375561e-08 0.0000000000000000e+00  6.9213381299812653e-07 -9.0486172245596233e-08 0.0000000000000000e+00  6.7670021221888172e-07 -7.8933223469889712e-08 0.0000000000000000e+00  6.6003577845782471e-07 -7.2559756479658794e-08 0.0000000000000000e+00  6.5825389393695677e-07 -6.8485491057634625e-08 0.0000000000000000e+00  6.6581622667219956e-07 -6.6071020468217595e-08 0.0000000000000000e+00  6.6543617540451885e-07 -5.9358381027049878e-08 0.0000000000000000e+00  6.5020591812131133e-07 -5.2995493765807107e-08 0.0000000000000000e+00  6.2878302026412959e-07 -4.4819573736968308e-08 0.0000000000000000e+00  6.0491897252049139e-07 -3.7962085030253671e-08 0.0000000000000000e+00  5.7485924300387333e-07 -2.7854610739957092e-08 0.0000000000000000e+00  5.4771460108574079e-07 -2.2727773682220900e-08 0.0000000000000000e+00  5.3970212440709290e-07 -2.1542781579014858e-08 0.0000000000000000e+00  5.4925068666746887e-07 -2.3446310369855275e-08 0.0000000000000000e+00  5.6040319734321025e-07 -2.4825255882575900e-08 0.0000000000000000e+00  5.5940569806838162e-07 -2.4955561306638107e-08 0.0000000000000000e+00  5.4792354687109964e-07 -2.3027567482677672e-08 0.0000000000000000e+00  5.2795527588072732e-07 -2.0212387919218280e-08 0.0000000000000000e+00  4.9625862545831742e-07 -1.3583567749867636e-08 0.0000000000000000e+00  4.5913619377730199e-07 -9.8695200765462740e-09 0.0000000000000000e+00  4.2695581595751523e-07 -7.2357350371797280e-09 0.0000000000000000e+00  4.0126271838738247e-07 -7.2785755058252091e-09 0.0000000000000000e+00  3.7372978534414235e-07 -4.6821149343334072e-09 0.0000000000000000e+00  3.3863257741340977e-07 -1.0123071570697230e-09 0.0000000000000000e+00  3.0016454298658837e-07 5.9853399834502049e-09 0.0000000000000000e+00  2.6404826912741838e-07 1.1482020506685348e-08 0.0000000000000000e+00  2.2884340378255422e-07 1.8447913722655552e-08 0.0000000000000000e+00  1.9447774702775757e-07 2.2800179825686949e-08 0.0000000000000000e+00  1.6739388971980880e-07 2.5381691834148133e-08 0.0000000000000000e+00  1.5059817052743055e-07 2.4058783422410478e-08 0.0000000000000000e+00  1.4034819311125880e-07 2.1169923992205172e-08 0.0000000000000000e+00  1.2802581049605144e-07 1.9359750602164747e-08 0.0000000000000000e+00  1.1145946983234724e-07 1.9244441018389769e-08 0.0000000000000000e+00  9.3096748532946396e-08 1.9294927760424591e-08 0.0000000000000000e+00  7.3776728197627522e-08 2.0334412631175184e-08 0.0000000000000000e+00  5.4761829373927141e-08 2.1091765717175751e-08 0.0000000000000000e+00  3.8728975734531518e-08 2.1868343821585088e-08 0.0000000000000000e+00  2.8093383337776601e-08 2.1435254819407839e-08 0.0000000000000000e+00  2.2478231226705975e-08 2.0228104818997848e-08 0.0000000000000000e+00  1.8826170951591486e-08 1.9489213932940857e-08 0.0000000000000000e+00  1.6649819153976467e-08 1.8354836645540781e-08 0.0000000000000000e+00  1.5516706683396629e-08 1.7622862664216775e-08 0.0000000000000000e+00  1.3820262891614405e-08 1.6509085895139760e-08 0.0000000000000000e+00  1.0707833562748526e-08 1.5503292223102731e-08 0.0000000000000000e+00  8.4054065084405149e-09 1.1669319692800841e-08 0.0000000000000000e+00  1.4599573583942908e-07 -2.0630965108722902e-07 0.0000000000000000e+00  -1.0798967130050275e-05 1.0779607022728955e-05 0.0000000000000000e+00  -6.6193799645179331e-05 4.0970037678466598e-05 0.0000000000000000e+00  -1.7510297773377052e-04 6.8606064675413883e-05 0.0000000000000000e+00  -3.2851648179501425e-04 8.9559085400956029e-05 0.0000000000000000e+00  -5.1456805636407288e-04 1.0385746693964433e-04 0.0000000000000000e+00  -7.2258471366232495e-04 1.1288545739768921e-04 0.0000000000000000e+00  -9.4393345179303689e-04 1.1791342393784106e-04 0.0000000000000000e+00  -1.1725096359360494e-03 1.2031473493546100e-04 0.0000000000000000e+00  -1.4039821268962661e-03 1.2092363822314113e-04 0.0000000000000000e+00  -1.6357539641653641e-03 1.2049260729293526e-04 0.0000000000000000e+00  -1.8660869799010059e-03 1.1937862386251926e-04 0.0000000000000000e+00  -2.0940523011253745e-03 1.1796453667260983e-04 0.0000000000000000e+00  -2.3189111431659651e-03 1.1624757313300879e-04 0.0000000000000000e+00  -2.5403299789768705e-03 1.1438935062674578e-04 0.0000000000000000e+00  -2.7578241151355550e-03 1.1227729704883045e-04 0.0000000000000000e+00  -2.9710930652781628e-03 1.1004599738981800e-04 0.0000000000000000e+00  -3.1796123490537469e-03 1.0755736983965410e-04 0.0000000000000000e+00  -3.3830366882752418e-03 1.0483726785788893e-04 0.0000000000000000e+00  -3.5808261965509071e-03 1.0181299029946916e-04 0.0000000000000000e+00  -3.7725033499800354e-03 9.8562778347847664e-05 0.0000000000000000e+00  -3.9574149144291845e-03 9.4954377006462628e-05 0.0000000000000000e+00  -4.1350604270318581e-03 9.1068631685015510e-05 0.0000000000000000e+00  -4.3047178149914697e-03 8.6772890180876713e-05 0.0000000000000000e+00  -4.4657988088079338e-03 8.2192298498551426e-05 0.0000000000000000e+00  -4.6174951186406807e-03 7.7196597596320665e-05 0.0000000000000000e+00  -4.7591838594965635e-03 7.1823109861506319e-05 0.0000000000000000e+00  -4.8900732319426474e-03 6.6008968245209564e-05 0.0000000000000000e+00  -5.0094495116955887e-03 5.9842937568673984e-05 0.0000000000000000e+00  -5.1164524067524985e-03 5.3217044362986031e-05 0.0000000000000000e+00  -5.2103830051660827e-03 4.6202792204569471e-05 0.0000000000000000e+00  -5.2904043742725490e-03 3.8727856498133637e-05 0.0000000000000000e+00  -5.3557859498729495e-03 3.0888882036249709e-05 0.0000000000000000e+00  -5.4056987121838757e-03 2.2635072697620936e-05 0.0000000000000000e+00  -5.4394592471345990e-03 1.3980838074984953e-05 0.0000000000000000e+00  -5.4563731634162706e-03 4.9579140194607670e-06 0.0000000000000000e+00  -5.4557954412749413e-03 -4.3797855412328137e-06 0.0000000000000000e+00  -5.4371053960039694e-03 -1.4040660217363542e-05 0.0000000000000000e+00  -5.3998211796236328e-03 -2.3940263608420582e-05 0.0000000000000000e+00  -5.3434718959599536e-03 -3.4085640189115779e-05 0.0000000000000000e+00  -5.2677463760155037e-03 -4.4357448893647353e-05 0.0000000000000000e+00  -5.1723442340118790e-03 -5.4752222447261607e-05 0.0000000000000000e+00  -5.0571809162846572e-03 -6.5183782286347628e-05 0.0000000000000000e+00  -4.9222274412705422e-03 -7.5609935986022250e-05 0.0000000000000000e+00  -4.7676292559785689e-03 -8.5909942111179482e-05 0.0000000000000000e+00  -4.5935907640814845e-03 -9.6067995734712945e-05 0.0000000000000000e+00  -4.4005391976236589e-03 -1.0596812716976654e-04 0.0000000000000000e+00  -4.1889767353845290e-03 -1.1557021128057453e-04 0.0000000000000000e+00  -3.9595863706966029e-03 -1.2477053441187195e-04 0.0000000000000000e+00  -3.7131532080354364e-03 -1.3350499238321044e-04 0.0000000000000000e+00  -3.4506473819134265e-03 -1.4170141899704809e-04 0.0000000000000000e+00  -3.1732269303998703e-03 -1.4923451200314966e-04 0.0000000000000000e+00  -2.8822650491850221e-03 -1.5597288728427396e-04 0.0000000000000000e+00  -2.5794764511997813e-03 -1.6171165290927917e-04 0.0000000000000000e+00  -2.2670650496653564e-03 -1.6613772726055466e-04 0.0000000000000000e+00  -1.9479498920841772e-03 -1.6880778078055158e-04 0.0000000000000000e+00  -1.6260942286866204e-03 -1.6906658159224371e-04 0.0000000000000000e+00  -1.3068836961609225e-03 -1.6603101209227921e-04 0.0000000000000000e+00  -9.9759410964750752e-04 -1.5855662437590278e-04 0.0000000000000000e+00  -7.0784369322318534e-04 -1.4521324070483353e-04 0.0000000000000000e+00  -4.4988051735954067e-04 -1.2442930625327403e-04 0.0000000000000000e+00  -2.3846713006328614e-04 -9.4744139511298143e-05 0.0000000000000000e+00  -8.9506742548010039e-05 -5.6119190666041714e-05 0.0000000000000000e+00  -1.4334848104603692e-05 -1.4421695193990763e-05 0.0000000000000000e+00  9.4555738901954185e-09 1.8349146810541178e-08 0.0000000000000000e+00  1.2761194816149270e-07 -2.6305428313067308e-07 0.0000000000000000e+00  -4.1481430704027847e-05 6.6495945557377981e-05 0.0000000000000000e+00  -1.6818196005750734e-04 1.6703374115963581e-04 0.0000000000000000e+00  -3.7649988713260807e-04 2.5916626462003933e-04 0.0000000000000000e+00  -6.5361636751743737e-04 3.3095213428611047e-04 0.0000000000000000e+00  -9.8338841385781799e-04 3.8170948808132540e-04 0.0000000000000000e+00  -1.3499815550395242e-03 4.1460631967674556e-04 0.0000000000000000e+00  -1.7401431930190504e-03 4.3383841164942047e-04 0.0000000000000000e+00  -2.1436752371469135e-03 4.4332524939742405e-04 0.0000000000000000e+00  -2.5533062538889897e-03 4.4629622463791753e-04 0.0000000000000000e+00  -2.9640840619692024e-03 4.4511396860063201e-04 0.0000000000000000e+00  -3.3728165087877427e-03 4.4139015463450724e-04 0.0000000000000000e+00  -3.7774174838552613e-03 4.3606205214216540e-04 0.0000000000000000e+00  -4.1765422452490477e-03 4.2967046006602347e-04 0.0000000000000000e+00  -4.5691706515830445e-03 4.2243044312149306e-04 0.0000000000000000e+00  -4.9544843925080568e-03 4.1443370837500191e-04 0.0000000000000000e+00  -5.3316917120745802e-03 4.0564421533187606e-04 0.0000000000000000e+00  -5.7000104764261487e-03 3.9601024581438862e-04 0.0000000000000000e+00  -6.0585941662018271e-03 3.8545804168111910e-04 0.0000000000000000e+00  -6.4065719578105884e-03 3.7393517681375758e-04 0.0000000000000000e+00  -6.7429793766988098e-03 3.6134339078031753e-04 0.0000000000000000e+00  -7.0668482017806743e-03 3.4764154225224337e-04 0.0000000000000000e+00  -7.3771079447023059e-03 3.3274489545811841e-04 0.0000000000000000e+00  -7.6726790387168014e-03 3.1661747657867257e-04 0.0000000000000000e+00  -7.9524038594153620e-03 2.9918577948325576e-04 0.0000000000000000e+00  -8.2151093179565742e-03 2.8040473332848571e-04 0.0000000000000000e+00  -8.4595665578944389e-03 2.6022970915908698e-04 0.0000000000000000e+00  -8.6845349902298311e-03 2.3863610718534862e-04 0.0000000000000000e+00  -8.8887236500203113e-03 2.1557658049452984e-04 0.0000000000000000e+00  -9.0708567185074605e-03 1.9105107572021040e-04 0.0000000000000000e+00  -9.2296296128233785e-03 1.6504330131982082e-04 0.0000000000000000e+00  -9.3637616300920514e-03 1.3757313654891269e-04 0.0000000000000000e+00  -9.4719772603992346e-03 1.0865977627562011e-04 0.0000000000000000e+00  -9.5530371774928992e-03 7.8338317311360070e-05 0.0000000000000000e+00  -9.6057592433754588e-03 4.6678916306664228e-05 0.0000000000000000e+00  -9.6290220561668863e-03 1.3761026226614641e-05 0.0000000000000000e+00  -9.6217772540771011e-03 -2.0323731056325917e-05 0.0000000000000000e+00  -9.5830941139792743e-03 -5.5439870524674192e-05 0.0000000000000000e+00  -9.5121442069096528e-03 -9.1455498995005402e-05 0.0000000000000000e+00  -9.4082562571873134e-03 -1.2819587347183260e-04 0.0000000000000000e+00  -9.2708915093536303e-03 -1.6548138332149335e-04 0.0000000000000000e+00  -9.0996966512266759e-03 -2.0310848821371630e-04 0.0000000000000000e+00  -8.8945051076625026e-03 -2.4085106543368529e-04 0.0000000000000000e+00  -8.6553499345454026e-03 -2.7847568781946434e-04 0.0000000000000000e+00  -8.3824700406609706e-03 -3.1574069702397343e-04 0.0000000000000000e+00  -8.0763276096090780e-03 -3.5238632991180864e-04 0.0000000000000000e+00  -7.7376140399157325e-03 -3.8815541666090305e-04 0.0000000000000000e+00  -7.3672476984301665e-03 -4.2278801744990898e-04 0.0000000000000000e+00  -6.9663855488488772e-03 -4.5600883355057133e-04 0.0000000000000000e+00  -6.5364224300941288e-03 -4.8754772167722922e-04 0.0000000000000000e+00  -6.0790505017245360e-03 -5.1706990029941672e-04 0.0000000000000000e+00  -5.5962705682701432e-03 -5.4419260652935775e-04 0.0000000000000000e+00  -5.0905307819744117e-03 -5.6837300404020659e-04 0.0000000000000000e+00  -4.5648722804308099e-03 -5.8884216979884535e-04 0.0000000000000000e+00  -4.0232123675489903e-03 -6.0446584788379008e-04 0.0000000000000000e+00  -3.4707100967662028e-03 -6.1360242882568740e-04 0.0000000000000000e+00  -2.9142648987357301e-03 -6.1394597198115666e-04 0.0000000000000000e+00  -2.3630893120126888e-03 -6.0242434280751388e-04 0.0000000000000000e+00  -1.8293241409576147e-03 -5.7514905112568990e-04 0.0000000000000000e+00  -1.3284848451601764e-03 -5.2759011470358841e-04 0.0000000000000000e+00  -8.7956328347870024e-04 -4.5506857235561650e-04 0.0000000000000000e+00  -5.0417711072556833e-04 -3.5417629292825288e-04 0.0000000000000000e+00  -2.2404892513233507e-04 -2.2651807088632569e-04 0.0000000000000000e+00  -5.4904896835312104e-05 -8.8880810950049181e-05 0.0000000000000000e+00  8.7080093033826068e-09 3.3159778270216748e-08 0.0000000000000000e+00  1.1278342245955355e-07 -2.8744091178458333e-07 0.0000000000000000e+00  -7.0532298057284334e-05 1.7739921541936219e-04 0.0000000000000000e+00  -2.6491948006193130e-04 3.7694357563174916e-04 0.0000000000000000e+00  -5.6216130369806880e-04 5.5426422207091185e-04 0.0000000000000000e+00  -9.4289496816318678e-04 6.9388578617216555e-04 0.0000000000000000e+00  -1.3875591932494301e-03 7.9450963244125192e-04 0.0000000000000000e+00  -1.8778090104739657e-03 8.6122664014208407e-04 0.0000000000000000e+00  -2.3979428688530855e-03 9.0122100464667737e-04 0.0000000000000000e+00  -2.9355759625731602e-03 9.2168194434370614e-04 0.0000000000000000e+00  -3.4815203834984783e-03 9.2869403681463325e-04 0.0000000000000000e+00  -4.0293319763588901e-03 9.2688981076060402e-04 0.0000000000000000e+00  -4.5746213524365826e-03 9.1943726702135950e-04 0.0000000000000000e+00  -5.1144589213666658e-03 9.0835124579464663e-04 0.0000000000000000e+00  -5.6467958573498617e-03 8.9474522858805025e-04 0.0000000000000000e+00  -6.1701295124524042e-03 8.7918640667367369e-04 0.0000000000000000e+00  -6.6831932591282471e-03 8.6185792847476273e-04 0.0000000000000000e+00  -7.1848470827623094e-03 8.4278254068931725e-04 0.0000000000000000e+00  -7.6739583249230353e-03 8.2188549390068756e-04 0.0000000000000000e+00  -8.1493722371527959e-03 7.9905728804245614e-04 0.0000000000000000e+00  -8.6098749110166059e-03 7.7415600087624235e-04 0.0000000000000000e+00  -9.0542179868338263e-03 7.4707053919548770e-04 0.0000000000000000e+00  -9.4810686684753762e-03 7.1766362847490190e-04 0.0000000000000000e+00  -9.8890735866958707e-03 6.8583770739517023e-04 0.0000000000000000e+00  -1.0276785639895895e-02 6.5146234965866737e-04 0.0000000000000000e+00  -1.0642739842510329e-02 6.1444875607446602e-04 0.0000000000000000e+00  -1.0985411402722942e-02 5.7470400701603271e-04 0.0000000000000000e+00  -1.1303245499142411e-02 5.3215401934175028e-04 0.0000000000000000e+00  -1.1594644619605025e-02 4.8672408907645504e-04 0.0000000000000000e+00  -1.1857999747529950e-02 4.3837960233893391e-04 0.0000000000000000e+00  -1.2091681772825035e-02 3.8708626457173878e-04 0.0000000000000000e+00  -1.2294079132671103e-02 3.3285233231504204e-04 0.0000000000000000e+00  -1.2463574363675635e-02 2.7569639398423599e-04 0.0000000000000000e+00  -1.2598591100222789e-02 2.1567673733429389e-04 0.0000000000000000e+00  -1.2697609798490840e-02 1.5289375067578748e-04 0.0000000000000000e+00  -1.2759165386715515e-02 8.7465392512054438e-05 0.0000000000000000e+00  -1.2781888328149768e-02 1.9562585982239359e-05 0.0000000000000000e+00  -1.2764514195464772e-02 -5.0605001168230268e-05 0.0000000000000000e+00  -1.2705909584560054e-02 -1.2279310653348578e-04 0.0000000000000000e+00  -1.2605112135126186e-02 -1.9670337474924461e-04 0.0000000000000000e+00  -1.2461306992886129e-02 -2.7201110037221673e-04 0.0000000000000000e+00  -1.2273900753561110e-02 -3.4833556590736959e-04 0.0000000000000000e+00  -1.2042509467486058e-02 -4.2526914018926047e-04 0.0000000000000000e+00  -1.1766991026934546e-02 -5.0236950408859065e-04 0.0000000000000000e+00  -1.1447452262994717e-02 -5.7916707527110901e-04 0.0000000000000000e+00  -1.1084263945772305e-02 -6.5516608562474156e-04 0.0000000000000000e+00  -1.0678079892038827e-02 -7.2986278185539462e-04 0.0000000000000000e+00  -1.0229842097347629e-02 -8.0273555775798634e-04 0.0000000000000000e+00  -9.7407786262296743e-03 -8.7325287821934580e-04 0.0000000000000000e+00  -9.2124219726747690e-03 -9.4087368770370361e-04 0.0000000000000000e+00  -8.6466398709942830e-03 -1.0050033658610387e-03 0.0000000000000000e+00  -8.0456478731404501e-03 -1.0649870804633722e-03 0.0000000000000000e+00  -7.4121218609274212e-03 -1.1199786289181363e-03 0.0000000000000000e+00  -6.7492942166439357e-03 -1.1688585087817093e-03 0.0000000000000000e+00  -6.0612080375508134e-03 -1.2100145730706475e-03 0.0000000000000000e+00  -5.3530196563684454e-03 -1.2411221524511052e-03 0.0000000000000000e+00  -4.6314570051416608e-03 -1.2588635229869017e-03 0.0000000000000000e+00  -3.9053804401756481e-03 -1.2586804664289322e-03 0.0000000000000000e+00  -3.1864148784024704e-03 -1.2346072519442456e-03 0.0000000000000000e+00  -2.4895338501791206e-03 -1.1793337777649959e-03 0.0000000000000000e+00  -1.8334472316705180e-03 -1.0846404888511796e-03 0.0000000000000000e+00  -1.2404672349891513e-03 -9.4258003520633464e-04 0.0000000000000000e+00  -7.3558066242481910e-04 -7.4804472699572535e-04 0.0000000000000000e+00  -3.4447997658777237e-04 -5.0426529024998957e-04 0.0000000000000000e+00  -9.1106029739957192e-05 -2.3405585839375020e-04 0.0000000000000000e+00  7.5065632516341362e-09 4.9285004531519457e-08 0.0000000000000000e+00  9.6598408228073521e-08 -2.8829577937695957e-07 0.0000000000000000e+00  -9.3807928054659141e-05 3.3622401361152601e-04 0.0000000000000000e+00  -3.4447796076801521e-04 6.6070392228473535e-04 0.0000000000000000e+00  -7.1646034955375024e-04 9.3835496797140504e-04 0.0000000000000000e+00  -1.1825518586354542e-03 1.1560237017338637e-03 0.0000000000000000e+00  -1.7193915231733983e-03 1.3141281015271950e-03 0.0000000000000000e+00  -2.3065484948629226e-03 1.4202589461198474e-03 0.0000000000000000e+00  -2.9269300015101743e-03 1.4849102338626964e-03 0.0000000000000000e+00  -3.5669468262128586e-03 1.5186802977246805e-03 0.0000000000000000e+00  -4.2163827909758875e-03 1.5307601184903913e-03 0.0000000000000000e+00  -4.8678919064485768e-03 1.5282637816669386e-03 0.0000000000000000e+00  -5.5163459690609658e-03 1.5162011618201248e-03 0.0000000000000000e+00  -6.1581746903935858e-03 1.4977843441999789e-03 0.0000000000000000e+00  -6.7908439626320960e-03 1.4748955424248417e-03 0.0000000000000000e+00  -7.4124145031032648e-03 1.4484903951285997e-03 0.0000000000000000e+00  -8.0212861767062320e-03 1.4189738891495285e-03 0.0000000000000000e+00  -8.6160009980117171e-03 1.3864285973671097e-03 0.0000000000000000e+00  -9.1951435487447018e-03 1.3507814170548439e-03 0.0000000000000000e+00  -9.7573068474247193e-03 1.3118904418924174e-03 0.0000000000000000e+00  -1.03010352945160